 Gaussian 16, Revision C.01,
 Gaussian 16:  ES64L-G16RevC.01  3-Jul-2019

 ----------------------------------
 #p stable=opt Uhseh1pbe/6-311(d,p)
 ----------------------------------

 --------
 molecule
 --------
 Symbolic Z-matrix:
 Charge =  0 Multiplicity = 2

                         Standard orientation:
 ---------------------------------------------------------------------
 Center     Atomic      Atomic             Coordinates (Angstroms)
 Number     Number       Type             X           Y           Z
 ---------------------------------------------------------------------
      1          6           0       -2.560382   -0.000050   -0.000040
      2          6           0       -3.281146   -1.084511    0.524456
      3          6           0       -4.671914   -1.083479    0.523672
      4          6           0       -5.390973   -0.000027   -0.000014
      5          6           0       -4.671906    1.083413   -0.523714
      6          6           0       -3.281138    1.084422   -0.524523
      7          6           0       -1.082983   -0.000057   -0.000048
      8          6           0       -0.361588   -0.589841    1.046430
      9          6           0        1.024515   -0.585781    1.039386
     10          6           0        1.788555   -0.000045   -0.000045
     11          6           0        1.024507    0.585676   -1.039481
     12          6           0       -0.361593    0.589727   -1.046530
     13          1           0       -2.747230   -1.946068    0.912298
     14          1           0       -5.214836   -1.932467    0.926452
     15          1           0       -5.214822    1.932410   -0.926484
     16          1           0       -2.747216    1.945972   -0.912374
     17          1           0       -0.880667   -1.013098    1.897041
     18          1           0       -0.880674    1.012988   -1.897137
     19          6           0        3.250407    0.000016   -0.000026
     20          6           0        3.985089   -1.232764    0.298243
     21          6           0        5.054030   -1.274749    1.225311
     22          6           0        3.676649   -2.467090   -0.323072
     23          6           0        5.761746   -2.435113    1.514380
     24          6           0        4.362615   -3.644424   -0.050801
     25          6           0        5.404907   -3.614929    0.869861
     26          1           0        6.560470   -2.419872    2.243877
     27          6           0        3.985085    1.232793   -0.298230
     28          6           0        3.676467    2.467169    0.322890
     29          6           0        5.054217    1.274738   -1.225096
     30          6           0        4.362450    3.644501    0.050653
     31          6           0        5.761959    2.435096   -1.514112
     32          6           0        5.404949    3.614962   -0.869777
     33          1           0        4.100133    4.560022    0.563842
     34          1           0        6.560834    2.419815   -2.243443
     35         17           0        6.281629   -5.086318    1.222932
     36         17           0        5.489391    0.146199    2.152675
     37         17           0        6.281702    5.086343   -1.222796
     38         17           0        2.447992    2.559849    1.568092
     39         17           0        5.489809   -0.146257   -2.152286
     40         17           0        1.812445    1.248324   -2.461140
     41         17           0        1.812439   -1.248365    2.461083
     42          6           0       -7.581984    0.876564    0.857650
     43          6           0       -7.582022   -0.876574   -0.857629
     44          6           0       -6.918760    1.760980    1.766425
     45          6           0       -9.026078    0.876570    0.847875
     46          6           0       -9.026115   -0.876549   -0.847822
     47          6           0       -6.918837   -1.761005   -1.766418
     48          6           0       -7.628116    2.599867    2.584258
     49          1           0       -5.836071    1.754612    1.804272
     50          6           0       -9.726476    1.770145    1.715100
     51          6           0       -9.726552   -1.770108   -1.715031
     52          1           0       -5.836148   -1.754660   -1.804289
     53          6           0       -7.628229   -2.599876   -2.584236
     54          6           0       -9.051360    2.611354    2.556581
     55          1           0       -7.102333    3.260816    3.266411
     56          1           0      -10.812589    1.762559    1.691771
     57          6           0       -9.051473   -2.611331   -2.556528
     58          1           0      -10.812664   -1.762499   -1.691678
     59          1           0       -7.102475   -3.260836   -3.266400
     60          1           0       -9.595644    3.284973    3.211054
     61          1           0       -9.595786   -3.284939   -3.210989
     62          6           0       -6.880216   -0.000012    0.000003
     63          6           0       -9.707346    0.000018    0.000034
     64          1           0      -10.794401    0.000030    0.000046
     65         17           0        2.448472   -2.559660   -1.568579
     66          1           0        4.100448   -4.559909   -0.564138
 ---------------------------------------------------------------------

 SCF Done:  E(UHSEH1PBE) =  -5176.89102379     A.U. after   22 cycles

 The electronic state is 2-A.
 Alpha  occ. eigenvalues -- -101.74019-101.74019-101.73630-101.73630-101.73594
 Alpha  occ. eigenvalues -- -101.73594-101.73196-101.73196 -10.30778 -10.30777
 Alpha  occ. eigenvalues --  -10.30771 -10.30771 -10.30577 -10.30577 -10.30062
 Alpha  occ. eigenvalues --  -10.30062 -10.27863 -10.26921 -10.26919 -10.26493
 Alpha  occ. eigenvalues --  -10.25602 -10.24892 -10.24892 -10.24890 -10.24890
 Alpha  occ. eigenvalues --  -10.24303 -10.23889 -10.23888 -10.23878 -10.23474
 Alpha  occ. eigenvalues --  -10.23262 -10.23255 -10.23016 -10.23014 -10.22980
 Alpha  occ. eigenvalues --  -10.22980 -10.22732 -10.22730 -10.21998 -10.21919
 Alpha  occ. eigenvalues --  -10.21919 -10.21832 -10.21832 -10.21788 -10.21788
 Alpha  occ. eigenvalues --  -10.21652 -10.21651  -9.54379  -9.54379  -9.54018
 Alpha  occ. eigenvalues --   -9.54017  -9.53981  -9.53980  -9.53587  -9.53587
 Alpha  occ. eigenvalues --   -7.27896  -7.27896  -7.27537  -7.27537  -7.27501
 Alpha  occ. eigenvalues --   -7.27501  -7.27099  -7.27099  -7.26947  -7.26947
 Alpha  occ. eigenvalues --   -7.26891  -7.26891  -7.26576  -7.26576  -7.26539
 Alpha  occ. eigenvalues --   -7.26539  -7.26522  -7.26522  -7.26484  -7.26484
 Alpha  occ. eigenvalues --   -7.26148  -7.26148  -7.26097  -7.26097  -0.95870
 Alpha  occ. eigenvalues --   -0.94454  -0.93578  -0.90820  -0.90644  -0.90202
 Alpha  occ. eigenvalues --   -0.90022  -0.90019  -0.89485  -0.88989  -0.86769
 Alpha  occ. eigenvalues --   -0.85533  -0.84456  -0.83537  -0.83141  -0.82240
 Alpha  occ. eigenvalues --   -0.81196  -0.78738  -0.77432  -0.77017  -0.76621
 Alpha  occ. eigenvalues --   -0.76515  -0.76508  -0.75684  -0.75429  -0.75346
 Alpha  occ. eigenvalues --   -0.71850  -0.69847  -0.66280  -0.65138  -0.64208
 Alpha  occ. eigenvalues --   -0.63691  -0.63447  -0.63102  -0.62856  -0.61812
 Alpha  occ. eigenvalues --   -0.61348  -0.60188  -0.60057  -0.58664  -0.55225
 Alpha  occ. eigenvalues --   -0.55078  -0.54857  -0.53415  -0.53382  -0.53193
 Alpha  occ. eigenvalues --   -0.51870  -0.51512  -0.51234  -0.49532  -0.48731
 Alpha  occ. eigenvalues --   -0.48053  -0.47556  -0.47336  -0.46982  -0.46967
 Alpha  occ. eigenvalues --   -0.46173  -0.46067  -0.45818  -0.45768  -0.45551
 Alpha  occ. eigenvalues --   -0.45523  -0.45031  -0.44226  -0.44028  -0.43542
 Alpha  occ. eigenvalues --   -0.43291  -0.43272  -0.42873  -0.42013  -0.41416
 Alpha  occ. eigenvalues --   -0.41022  -0.40835  -0.40560  -0.40435  -0.39956
 Alpha  occ. eigenvalues --   -0.39445  -0.38957  -0.38776  -0.38490  -0.38488
 Alpha  occ. eigenvalues --   -0.38280  -0.38013  -0.37392  -0.37299  -0.36997
 Alpha  occ. eigenvalues --   -0.36864  -0.35610  -0.35023  -0.34273  -0.34034
 Alpha  occ. eigenvalues --   -0.33625  -0.33575  -0.33572  -0.33345  -0.33134
 Alpha  occ. eigenvalues --   -0.33120  -0.32588  -0.32152  -0.32140  -0.31933
 Alpha  occ. eigenvalues --   -0.31380  -0.30949  -0.30341  -0.29865  -0.27654
 Alpha  occ. eigenvalues --   -0.27134  -0.26591  -0.26415  -0.26193  -0.26016
 Alpha  occ. eigenvalues --   -0.25650  -0.24709  -0.24623  -0.20807  -0.19776
 Alpha virt. eigenvalues --   -0.08670  -0.07575  -0.06843  -0.06265  -0.05435
 Alpha virt. eigenvalues --   -0.04938  -0.04208  -0.03625  -0.03197  -0.02915
 Alpha virt. eigenvalues --   -0.02455  -0.01371  -0.00817  -0.00221   0.01888

  Beta  occ. eigenvalues -- -101.74012-101.74011-101.73628-101.73628-101.73592
  Beta  occ. eigenvalues -- -101.73592-101.73194-101.73194 -10.30591 -10.30591
  Beta  occ. eigenvalues --  -10.30585 -10.30585 -10.30418 -10.30418 -10.29868
  Beta  occ. eigenvalues --  -10.29868 -10.27114 -10.27113 -10.26704 -10.26656
  Beta  occ. eigenvalues --  -10.25440 -10.24972 -10.24972 -10.24970 -10.24970
  Beta  occ. eigenvalues --  -10.24334 -10.23975 -10.23973 -10.23847 -10.23477
  Beta  occ. eigenvalues --  -10.23259 -10.23252 -10.22986 -10.22984 -10.22981
  Beta  occ. eigenvalues --  -10.22981 -10.22747 -10.22745 -10.21995 -10.21918
  Beta  occ. eigenvalues --  -10.21918 -10.21832 -10.21832 -10.21788 -10.21788
  Beta  occ. eigenvalues --  -10.21652 -10.21652  -9.54372  -9.54372  -9.54016
  Beta  occ. eigenvalues --   -9.54015  -9.53979  -9.53979  -9.53585  -9.53585
  Beta  occ. eigenvalues --   -7.27899  -7.27898  -7.27544  -7.27544  -7.27508
  Beta  occ. eigenvalues --   -7.27508  -7.27107  -7.27107  -7.26915  -7.26915
  Beta  occ. eigenvalues --   -7.26886  -7.26886  -7.26561  -7.26561  -7.26525
  Beta  occ. eigenvalues --   -7.26525  -7.26520  -7.26520  -7.26482  -7.26482
  Beta  occ. eigenvalues --   -7.26133  -7.26133  -7.26095  -7.26095  -0.95508
  Beta  occ. eigenvalues --   -0.94302  -0.93397  -0.90763  -0.90473  -0.90075
  Beta  occ. eigenvalues --   -0.89898  -0.89890  -0.89361  -0.88937  -0.86768
  Beta  occ. eigenvalues --   -0.85370  -0.83871  -0.83515  -0.82862  -0.82163
  Beta  occ. eigenvalues --   -0.81164  -0.78662  -0.77413  -0.77010  -0.76618
  Beta  occ. eigenvalues --   -0.76532  -0.76526  -0.75668  -0.75435  -0.75346
  Beta  occ. eigenvalues --   -0.71760  -0.69059  -0.66156  -0.65035  -0.64067
  Beta  occ. eigenvalues --   -0.63493  -0.63251  -0.62885  -0.62787  -0.61671
  Beta  occ. eigenvalues --   -0.61186  -0.60055  -0.59877  -0.58615  -0.55174
  Beta  occ. eigenvalues --   -0.54951  -0.54802  -0.53358  -0.53328  -0.52724
  Beta  occ. eigenvalues --   -0.51792  -0.51401  -0.51141  -0.49358  -0.48594
  Beta  occ. eigenvalues --   -0.48008  -0.47482  -0.47290  -0.46980  -0.46931
  Beta  occ. eigenvalues --   -0.46019  -0.45971  -0.45774  -0.45725  -0.45513
  Beta  occ. eigenvalues --   -0.45388  -0.44982  -0.44018  -0.43736  -0.43451
  Beta  occ. eigenvalues --   -0.43258  -0.43181  -0.42542  -0.41902  -0.41413
  Beta  occ. eigenvalues --   -0.40915  -0.40719  -0.40479  -0.40117  -0.39929
  Beta  occ. eigenvalues --   -0.39338  -0.38826  -0.38481  -0.38364  -0.38276
  Beta  occ. eigenvalues --   -0.38169  -0.37747  -0.37260  -0.37098  -0.36860
  Beta  occ. eigenvalues --   -0.36703  -0.35573  -0.35013  -0.34211  -0.33876
  Beta  occ. eigenvalues --   -0.33613  -0.33548  -0.33513  -0.33245  -0.33111
  Beta  occ. eigenvalues --   -0.32951  -0.32581  -0.32143  -0.32128  -0.31817
  Beta  occ. eigenvalues --   -0.31270  -0.30944  -0.30321  -0.28543  -0.27085
  Beta  occ. eigenvalues --   -0.26989  -0.26474  -0.26270  -0.26085  -0.25994
  Beta  occ. eigenvalues --   -0.25555  -0.24619  -0.24503  -0.19830
  Beta virt. eigenvalues --   -0.13769  -0.08648  -0.07316  -0.06446  -0.05948
  Beta virt. eigenvalues --   -0.05084  -0.04627  -0.04134  -0.03165  -0.03105
  Beta virt. eigenvalues --   -0.02662  -0.02068  -0.01362  -0.00567   0.00868

 Mulliken charges and spin densities:
               1          2
     1  C   -0.056925  -0.024835
     2  C   -0.068650   0.020872
     3  C   -0.057980  -0.012024
     4  C   -0.243281   0.020847
     5  C   -0.057980  -0.012024
     6  C   -0.068650   0.020872
     7  C   -0.047151   0.109767
     8  C    0.058953  -0.064281
     9  C   -0.196256   0.108623
    10  C    0.057778  -0.146345
    11  C   -0.196261   0.108622
    12  C    0.058958  -0.064280
    13  H    0.115942  -0.001192
    14  H    0.113863   0.000647
    15  H    0.113863   0.000647
    16  H    0.115942  -0.001192
    17  H    0.138586   0.003901
    18  H    0.138584   0.003901
    19  C    0.069772   0.787917
    20  C    0.043744  -0.137731
    21  C   -0.188722   0.103317
    22  C   -0.188518   0.102968
    23  C    0.156710  -0.058655
    24  C    0.156162  -0.058617
    25  C   -0.257149   0.094456
    26  H    0.154569   0.003601
    27  C    0.043834  -0.137764
    28  C   -0.188548   0.103005
    29  C   -0.188741   0.103355
    30  C    0.156165  -0.058642
    31  C    0.156713  -0.058679
    32  C   -0.257154   0.094496
    33  H    0.154242   0.003635
    34  H    0.154570   0.003603
    35  Cl  -0.032791   0.007267
    36  Cl  -0.016107   0.003076
    37  Cl  -0.032789   0.007270
    38  Cl  -0.015152   0.002841
    39  Cl  -0.016105   0.003077
    40  Cl  -0.029247   0.003206
    41  Cl  -0.029248   0.003205
    42  C   -0.013193   0.001371
    43  C   -0.013193   0.001371
    44  C   -0.066594  -0.000585
    45  C   -0.078066  -0.000894
    46  C   -0.078067  -0.000894
    47  C   -0.066595  -0.000585
    48  C   -0.101893   0.000833
    49  H    0.121108  -0.000055
    50  C   -0.066795   0.000757
    51  C   -0.066795   0.000757
    52  H    0.121108  -0.000055
    53  C   -0.101893   0.000833
    54  C   -0.096324  -0.000683
    55  H    0.106179  -0.000047
    56  H    0.093862  -0.000034
    57  C   -0.096325  -0.000683
    58  H    0.093862  -0.000034
    59  H    0.106180  -0.000047
    60  H    0.106563   0.000038
    61  H    0.106563   0.000038
    62  C    0.034980  -0.002636
    63  C    0.006061   0.002152
    64  H    0.084630  -0.000127
    65  Cl  -0.015151   0.002840
    66  H    0.154242   0.003634
 Sum of Mulliken charges =  -0.00000   1.00000

 Dipole moment (field-independent basis, Debye):
    X=             -2.9198    Y=              0.0001    Z=              0.0000  Tot=              2.9198
 Quadrupole moment (field-independent basis, Debye-Ang):
   XX=           -299.0573   YY=           -315.9486   ZZ=           -323.9383
   XY=              0.0002   XZ=              0.0000   YZ=              6.9277

 Normal termination of Gaussian 16 at Fri Jun 13 17:50:09 2025.
