 Gaussian 16, Revision C.01,
 Gaussian 16:  ES64L-G16RevC.01  3-Jul-2019

 --------------------------------------------
 #p TD(nstates=20) Ub3lyp/6-31g(d,p) em=gd3bj
 --------------------------------------------

 --------
 molecule
 --------
 Symbolic Z-matrix:
 Charge =  0 Multiplicity = 2

                         Standard orientation:
 ---------------------------------------------------------------------
 Center     Atomic      Atomic             Coordinates (Angstroms)
 Number     Number       Type             X           Y           Z
 ---------------------------------------------------------------------
      1          6           0       -2.560382   -0.000050   -0.000040
      2          6           0       -3.281146   -1.084511    0.524456
      3          6           0       -4.671914   -1.083479    0.523672
      4          6           0       -5.390973   -0.000027   -0.000014
      5          6           0       -4.671906    1.083413   -0.523714
      6          6           0       -3.281138    1.084422   -0.524523
      7          6           0       -1.082983   -0.000057   -0.000048
      8          6           0       -0.361588   -0.589841    1.046430
      9          6           0        1.024515   -0.585781    1.039386
     10          6           0        1.788555   -0.000045   -0.000045
     11          6           0        1.024507    0.585676   -1.039481
     12          6           0       -0.361593    0.589727   -1.046530
     13          1           0       -2.747230   -1.946068    0.912298
     14          1           0       -5.214836   -1.932467    0.926452
     15          1           0       -5.214822    1.932410   -0.926484
     16          1           0       -2.747216    1.945972   -0.912374
     17          1           0       -0.880667   -1.013098    1.897041
     18          1           0       -0.880674    1.012988   -1.897137
     19          6           0        3.250407    0.000016   -0.000026
     20          6           0        3.985089   -1.232764    0.298243
     21          6           0        5.054030   -1.274749    1.225311
     22          6           0        3.676649   -2.467090   -0.323072
     23          6           0        5.761746   -2.435113    1.514380
     24          6           0        4.362615   -3.644424   -0.050801
     25          6           0        5.404907   -3.614929    0.869861
     26          1           0        6.560470   -2.419872    2.243877
     27          6           0        3.985085    1.232793   -0.298230
     28          6           0        3.676467    2.467169    0.322890
     29          6           0        5.054217    1.274738   -1.225096
     30          6           0        4.362450    3.644501    0.050653
     31          6           0        5.761959    2.435096   -1.514112
     32          6           0        5.404949    3.614962   -0.869777
     33          1           0        4.100133    4.560022    0.563842
     34          1           0        6.560834    2.419815   -2.243443
     35         17           0        6.281629   -5.086318    1.222932
     36         17           0        5.489391    0.146199    2.152675
     37         17           0        6.281702    5.086343   -1.222796
     38         17           0        2.447992    2.559849    1.568092
     39         17           0        5.489809   -0.146257   -2.152286
     40         17           0        1.812445    1.248324   -2.461140
     41         17           0        1.812439   -1.248365    2.461083
     42          6           0       -7.581984    0.876564    0.857650
     43          6           0       -7.582022   -0.876574   -0.857629
     44          6           0       -6.918760    1.760980    1.766425
     45          6           0       -9.026078    0.876570    0.847875
     46          6           0       -9.026115   -0.876549   -0.847822
     47          6           0       -6.918837   -1.761005   -1.766418
     48          6           0       -7.628116    2.599867    2.584258
     49          1           0       -5.836071    1.754612    1.804272
     50          6           0       -9.726476    1.770145    1.715100
     51          6           0       -9.726552   -1.770108   -1.715031
     52          1           0       -5.836148   -1.754660   -1.804289
     53          6           0       -7.628229   -2.599876   -2.584236
     54          6           0       -9.051360    2.611354    2.556581
     55          1           0       -7.102333    3.260816    3.266411
     56          1           0      -10.812589    1.762559    1.691771
     57          6           0       -9.051473   -2.611331   -2.556528
     58          1           0      -10.812664   -1.762499   -1.691678
     59          1           0       -7.102475   -3.260836   -3.266400
     60          1           0       -9.595644    3.284973    3.211054
     61          1           0       -9.595786   -3.284939   -3.210989
     62          6           0       -6.880216   -0.000012    0.000003
     63          6           0       -9.707346    0.000018    0.000034
     64          1           0      -10.794401    0.000030    0.000046
     65         17           0        2.448472   -2.559660   -1.568579
     66          1           0        4.100448   -4.559909   -0.564138
 ---------------------------------------------------------------------

 SCF Done:  E(UB3LYP) =  -5179.39567261     A.U. after   21 cycles

 Excitation energies and oscillator strengths:

 Excited State   1:  2.539-A      1.7101 eV  725.01 nm  f=0.0138  <S**2>=1.362
    195A ->196A       -0.33749
    194B ->195B        0.85478
    194B ->196B        0.35940
 This state for optimization and/or second-order correction.
 Total Energy, E(TD-HF/TD-DFT) =  -5179.33282750
 Copying the excited state density for this state as the 1-particle RhoCI density.

 Excited State   2:  3.145-A      1.7846 eV  694.73 nm  f=0.0063  <S**2>=2.223
    194A ->196A       -0.14978
    195A ->196A       -0.55854
    195A ->197A        0.16016
    194B ->195B       -0.51299
    194B ->196B        0.57666
    194B ->197B       -0.14943
    195A <-196A       -0.10229
    194B <-196B        0.11124

 Excited State   3:  2.224-A      2.4351 eV  509.15 nm  f=0.0575  <S**2>=0.987
    194A ->196A        0.11942
    194A ->197A        0.25152
    195A ->197A       -0.12618
    184B ->195B        0.15125
    186B ->195B        0.16171
    188B ->195B       -0.13361
    193B ->195B        0.87842
    193B ->197B        0.11309

 Excited State   4:  2.188-A      2.6210 eV  473.04 nm  f=0.0155  <S**2>=0.947
    194A ->198A       -0.26820
    187B ->195B        0.12360
    189B ->195B       -0.35866
    190B ->195B       -0.10960
    191B ->195B        0.83367

 Excited State   5:  2.132-A      2.7995 eV  442.89 nm  f=0.0072  <S**2>=0.886
    194A ->198A        0.19407
    187B ->195B       -0.13943
    189B ->195B        0.79145
    190B ->195B        0.16944
    191B ->195B        0.48413

 Excited State   6:  2.228-A      2.9189 eV  424.77 nm  f=0.0095  <S**2>=0.991
    192A ->197A        0.11242
    194A ->196A        0.11398
    194A ->197A        0.16106
    195A ->197A       -0.14727
    184B ->195B        0.13319
    188B ->195B        0.89909
    193B ->197B        0.11633

 Excited State   7:  2.109-A      2.9576 eV  419.20 nm  f=0.0037  <S**2>=0.862
    194A ->198A       -0.14173
    194A ->199A        0.14906
    187B ->195B        0.92096
    189B ->195B        0.24971

 Excited State   8:  2.269-A      3.0008 eV  413.16 nm  f=0.0655  <S**2>=1.037
    189A ->198A       -0.11323
    191A ->198A       -0.11848
    194A ->196A        0.13184
    194A ->197A        0.30919
    194A ->203A        0.16534
    194A ->206A       -0.11068
    195A ->196A       -0.14435
    195A ->197A       -0.11267
    184B ->195B       -0.19592
    186B ->195B        0.75315
    193B ->195B       -0.24647

 Excited State   9:  2.073-A      3.0261 eV  409.72 nm  f=0.0001  <S**2>=0.824
    192B ->195B        0.99653

 Excited State  10:  2.403-A      3.0383 eV  408.07 nm  f=0.4403  <S**2>=1.194
    192A ->197A       -0.14121
    194A ->196A       -0.25251
    194A ->197A       -0.36549
    195A ->196A        0.42151
    195A ->197A        0.33523
    186B ->195B        0.36732
    188B ->195B        0.31708
    193B ->195B        0.26595
    193B ->197B       -0.16011
    194B ->196B        0.25509
    194B ->197B       -0.10364

 Excited State  11:  2.223-A      3.1757 eV  390.42 nm  f=0.0210  <S**2>=0.985
    194A ->196A        0.21777
    194A ->197A        0.22445
    195A ->196A        0.53820
    195A ->197A       -0.20863
    193B ->195B       -0.18020
    193B ->197B        0.14213
    194B ->196B        0.64826
    194B ->197B        0.16855

 Excited State  12:  3.411-A      3.2804 eV  377.95 nm  f=0.0005  <S**2>=2.659
    186A ->196A        0.14210
    190A ->196A       -0.45239
    190A ->197A        0.14325
    194A ->207A       -0.10058
    195A ->202A        0.11557
    195A ->205A       -0.10748
    195A ->207A       -0.34836
    195A ->208A        0.14125
    185B ->196B       -0.15365
    189B ->196B       -0.10189
    190B ->195B        0.23430
    190B ->196B        0.45240
    190B ->197B       -0.10897
    194B ->202B       -0.11427
    194B ->207B       -0.38152

 Excited State  13:  2.297-A      3.2987 eV  375.85 nm  f=0.1698  <S**2>=1.069
    187A ->200A        0.11627
    188A ->199A        0.12472
    192A ->198A       -0.10599
    194A ->198A        0.74962
    195A ->198A       -0.30504
    186B ->198B       -0.10915
    187B ->195B        0.25045
    189B ->195B       -0.29842
    190B ->195B       -0.13829
    191B ->195B        0.18219

 Excited State  14:  3.114-A      3.3129 eV  374.25 nm  f=0.0405  <S**2>=2.174
    194A ->196A        0.37661
    194A ->197A        0.43046
    195A ->196A        0.13805
    195A ->197A        0.54514
    195A ->203A       -0.13727
    184B ->195B        0.21434
    186B ->195B       -0.14238
    194B ->197B       -0.41333

 Excited State  15:  2.187-A      3.3444 eV  370.72 nm  f=0.0028  <S**2>=0.946
    185B ->195B        0.37891
    189B ->195B       -0.20965
    190B ->195B        0.85740

 Excited State  16:  2.167-A      3.4006 eV  364.59 nm  f=0.0153  <S**2>=0.924
    192A ->196A        0.10128
    194A ->196A        0.43312
    194A ->197A       -0.16332
    195A ->196A       -0.14038
    195A ->197A        0.52501
    184B ->195B       -0.13225
    194B ->197B        0.64051

 Excited State  17:  2.235-A      3.4496 eV  359.42 nm  f=0.0030  <S**2>=0.999
    192A ->197A       -0.12228
    194A ->196A        0.65231
    194A ->197A       -0.41685
    195A ->196A       -0.10605
    195A ->197A       -0.27878
    184B ->195B       -0.23030
    193B ->195B        0.10297
    194B ->197B       -0.38508

 Excited State  18:  3.471-A      3.4893 eV  355.32 nm  f=0.0000  <S**2>=2.761
    193A ->196A       -0.55277
    193A ->197A        0.14003
    195A ->202A        0.28234
    195A ->205A        0.25117
    192B ->196B        0.55872
    192B ->197B       -0.11418
    194B ->202B       -0.28988
    194B ->204B       -0.23134
    194B ->205B       -0.11900

 Excited State  19:  2.531-A      3.5054 eV  353.69 nm  f=0.0004  <S**2>=1.352
    185A ->197A        0.11473
    188A ->200A       -0.10058
    191A ->201A       -0.10029
    192A ->203A        0.10920
    194A ->196A        0.20268
    194A ->197A       -0.27504
    195A ->197A       -0.14895
    184B ->195B        0.68101
    186B ->195B        0.31718
    188B ->195B       -0.12303
    193B ->195B       -0.14891

 Excited State  20:  2.194-A      3.5111 eV  353.12 nm  f=0.0095  <S**2>=0.954
    194A ->199A        0.87346
    195A ->199A       -0.38218
    187B ->195B       -0.15803

 The electronic state is 2-A.
 Alpha  occ. eigenvalues -- -101.56501-101.56500-101.56134-101.56134-101.56098
 Alpha  occ. eigenvalues -- -101.56098-101.55697-101.55697 -10.27813 -10.27812
 Alpha  occ. eigenvalues --  -10.27805 -10.27805 -10.27708 -10.27708 -10.27096
 Alpha  occ. eigenvalues --  -10.27096 -10.24601 -10.24046 -10.24044 -10.23603
 Alpha  occ. eigenvalues --  -10.22751 -10.22448 -10.22448 -10.22446 -10.22446
 Alpha  occ. eigenvalues --  -10.21499 -10.21365 -10.21364 -10.20984 -10.20493
 Alpha  occ. eigenvalues --  -10.20460 -10.20459 -10.20381 -10.20370 -10.20186
 Alpha  occ. eigenvalues --  -10.20184 -10.20139 -10.20137 -10.19385 -10.19385
 Alpha  occ. eigenvalues --  -10.19348 -10.19329 -10.19329 -10.19301 -10.19301
 Alpha  occ. eigenvalues --  -10.19081 -10.19081  -9.48124  -9.48124  -9.47751
 Alpha  occ. eigenvalues --   -9.47751  -9.47715  -9.47714  -9.47314  -9.47314
 Alpha  occ. eigenvalues --   -7.24529  -7.24529  -7.24162  -7.24161  -7.24126
 Alpha  occ. eigenvalues --   -7.24126  -7.23718  -7.23717  -7.23560  -7.23560
 Alpha  occ. eigenvalues --   -7.23507  -7.23506  -7.23182  -7.23182  -7.23146
 Alpha  occ. eigenvalues --   -7.23146  -7.23129  -7.23129  -7.23091  -7.23091
 Alpha  occ. eigenvalues --   -7.22749  -7.22749  -7.22698  -7.22697  -0.94096
 Alpha  occ. eigenvalues --   -0.92748  -0.91871  -0.89232  -0.88948  -0.88775
 Alpha  occ. eigenvalues --   -0.88595  -0.88590  -0.88064  -0.87289  -0.85059
 Alpha  occ. eigenvalues --   -0.83985  -0.83025  -0.82198  -0.81739  -0.80675
 Alpha  occ. eigenvalues --   -0.79663  -0.77312  -0.76100  -0.75698  -0.75269
 Alpha  occ. eigenvalues --   -0.75263  -0.75234  -0.74326  -0.74157  -0.73981
 Alpha  occ. eigenvalues --   -0.70560  -0.68577  -0.65133  -0.64023  -0.63177
 Alpha  occ. eigenvalues --   -0.62665  -0.62446  -0.62094  -0.61780  -0.60796
 Alpha  occ. eigenvalues --   -0.60411  -0.59243  -0.59155  -0.57761  -0.54400
 Alpha  occ. eigenvalues --   -0.54222  -0.54040  -0.52557  -0.52476  -0.52219
 Alpha  occ. eigenvalues --   -0.51036  -0.50618  -0.50472  -0.48871  -0.48152
 Alpha  occ. eigenvalues --   -0.47498  -0.47084  -0.46732  -0.46325  -0.46310
 Alpha  occ. eigenvalues --   -0.45610  -0.45518  -0.45316  -0.45280  -0.44966
 Alpha  occ. eigenvalues --   -0.44774  -0.44527  -0.43606  -0.43367  -0.43079
 Alpha  occ. eigenvalues --   -0.42795  -0.42788  -0.42220  -0.41514  -0.40798
 Alpha  occ. eigenvalues --   -0.40557  -0.40332  -0.40000  -0.39859  -0.39549
 Alpha  occ. eigenvalues --   -0.39013  -0.38513  -0.38240  -0.37960  -0.37947
 Alpha  occ. eigenvalues --   -0.37944  -0.37520  -0.36885  -0.36868  -0.36492
 Alpha  occ. eigenvalues --   -0.36232  -0.35366  -0.34765  -0.33885  -0.33595
 Alpha  occ. eigenvalues --   -0.33198  -0.33148  -0.33133  -0.32913  -0.32703
 Alpha  occ. eigenvalues --   -0.32698  -0.32300  -0.31778  -0.31754  -0.31538
 Alpha  occ. eigenvalues --   -0.31006  -0.30432  -0.29855  -0.29356  -0.27257
 Alpha  occ. eigenvalues --   -0.26727  -0.26308  -0.26137  -0.25895  -0.25630
 Alpha  occ. eigenvalues --   -0.25363  -0.24351  -0.24233  -0.20277  -0.19445
 Alpha virt. eigenvalues --   -0.06701  -0.05563  -0.04843  -0.04157  -0.03474
 Alpha virt. eigenvalues --   -0.02953  -0.02115  -0.01731  -0.01368  -0.01182
 Alpha virt. eigenvalues --   -0.00793   0.00558   0.00813   0.01819   0.04123

  Beta  occ. eigenvalues -- -101.56493-101.56493-101.56131-101.56131-101.56096
  Beta  occ. eigenvalues -- -101.56096-101.55695-101.55695 -10.27657 -10.27657
  Beta  occ. eigenvalues --  -10.27650 -10.27650 -10.27578 -10.27578 -10.26935
  Beta  occ. eigenvalues --  -10.26935 -10.24197 -10.24196 -10.23763 -10.23554
  Beta  occ. eigenvalues --  -10.22617 -10.22507 -10.22507 -10.22505 -10.22505
  Beta  occ. eigenvalues --  -10.21521 -10.21428 -10.21427 -10.20961 -10.20495
  Beta  occ. eigenvalues --  -10.20437 -10.20435 -10.20379 -10.20369 -10.20196
  Beta  occ. eigenvalues --  -10.20194 -10.20139 -10.20137 -10.19385 -10.19385
  Beta  occ. eigenvalues --  -10.19346 -10.19329 -10.19329 -10.19301 -10.19301
  Beta  occ. eigenvalues --  -10.19082 -10.19082  -9.48118  -9.48118  -9.47749
  Beta  occ. eigenvalues --   -9.47749  -9.47713  -9.47713  -9.47312  -9.47312
  Beta  occ. eigenvalues --   -7.24530  -7.24530  -7.24168  -7.24167  -7.24132
  Beta  occ. eigenvalues --   -7.24132  -7.23723  -7.23723  -7.23533  -7.23533
  Beta  occ. eigenvalues --   -7.23502  -7.23502  -7.23170  -7.23169  -7.23135
  Beta  occ. eigenvalues --   -7.23134  -7.23126  -7.23126  -7.23089  -7.23089
  Beta  occ. eigenvalues --   -7.22736  -7.22736  -7.22696  -7.22694  -0.93780
  Beta  occ. eigenvalues --   -0.92611  -0.91707  -0.89073  -0.88919  -0.88667
  Beta  occ. eigenvalues --   -0.88487  -0.88483  -0.87958  -0.87243  -0.85058
  Beta  occ. eigenvalues --   -0.83858  -0.82522  -0.82171  -0.81444  -0.80605
  Beta  occ. eigenvalues --   -0.79635  -0.77234  -0.76082  -0.75666  -0.75268
  Beta  occ. eigenvalues --   -0.75261  -0.75232  -0.74298  -0.74149  -0.73979
  Beta  occ. eigenvalues --   -0.70481  -0.67885  -0.65025  -0.63931  -0.63057
  Beta  occ. eigenvalues --   -0.62481  -0.62272  -0.61883  -0.61749  -0.60666
  Beta  occ. eigenvalues --   -0.60267  -0.59153  -0.58968  -0.57718  -0.54363
  Beta  occ. eigenvalues --   -0.54100  -0.53976  -0.52472  -0.52464  -0.51813
  Beta  occ. eigenvalues --   -0.50958  -0.50510  -0.50394  -0.48716  -0.48035
  Beta  occ. eigenvalues --   -0.47463  -0.47007  -0.46718  -0.46308  -0.46267
  Beta  occ. eigenvalues --   -0.45570  -0.45323  -0.45279  -0.45240  -0.44808
  Beta  occ. eigenvalues --   -0.44765  -0.44484  -0.43439  -0.43209  -0.42914
  Beta  occ. eigenvalues --   -0.42787  -0.42669  -0.41922  -0.41412  -0.40795
  Beta  occ. eigenvalues --   -0.40460  -0.40182  -0.39865  -0.39701  -0.39516
  Beta  occ. eigenvalues --   -0.38910  -0.38393  -0.37998  -0.37945  -0.37840
  Beta  occ. eigenvalues --   -0.37683  -0.37286  -0.36831  -0.36640  -0.36249
  Beta  occ. eigenvalues --   -0.36229  -0.35338  -0.34757  -0.33841  -0.33451
  Beta  occ. eigenvalues --   -0.33186  -0.33127  -0.33074  -0.32826  -0.32695
  Beta  occ. eigenvalues --   -0.32541  -0.32293  -0.31768  -0.31740  -0.31429
  Beta  occ. eigenvalues --   -0.30900  -0.30428  -0.29835  -0.28193  -0.26683
  Beta  occ. eigenvalues --   -0.26664  -0.26170  -0.25981  -0.25750  -0.25615
  Beta  occ. eigenvalues --   -0.25247  -0.24230  -0.24118  -0.19509
  Beta virt. eigenvalues --   -0.12140  -0.06678  -0.05308  -0.04466  -0.03862
  Beta virt. eigenvalues --   -0.03165  -0.02655  -0.02064  -0.01329  -0.01183
  Beta virt. eigenvalues --   -0.01108  -0.00346   0.00583   0.01034   0.02802

 Mulliken charges and spin densities:
               1          2
     1  C    0.067728  -0.019328
     2  C   -0.118625   0.017216
     3  C   -0.102439  -0.008988
     4  C   -0.007631   0.017314
     5  C   -0.102439  -0.008988
     6  C   -0.118625   0.017216
     7  C    0.077608   0.098433
     8  C   -0.093837  -0.052780
     9  C   -0.133731   0.100904
    10  C    0.135325  -0.127247
    11  C   -0.133728   0.100903
    12  C   -0.093836  -0.052779
    13  H    0.096307  -0.000690
    14  H    0.101654   0.000362
    15  H    0.101654   0.000362
    16  H    0.096307  -0.000690
    17  H    0.117632   0.002563
    18  H    0.117632   0.002563
    19  C   -0.122907   0.748426
    20  C    0.133749  -0.120031
    21  C   -0.119973   0.095672
    22  C   -0.119136   0.095449
    23  C   -0.050252  -0.048479
    24  C   -0.050367  -0.048438
    25  C   -0.089925   0.086575
    26  H    0.136792   0.002330
    27  C    0.133796  -0.120058
    28  C   -0.119148   0.095483
    29  C   -0.119988   0.095707
    30  C   -0.050367  -0.048459
    31  C   -0.050252  -0.048499
    32  C   -0.089925   0.086612
    33  H    0.136379   0.002366
    34  H    0.136793   0.002330
    35  Cl   0.008897   0.007256
    36  Cl   0.022471   0.003215
    37  Cl   0.008901   0.007259
    38  Cl   0.022962   0.002882
    39  Cl   0.022476   0.003216
    40  Cl   0.011047   0.003371
    41  Cl   0.011049   0.003371
    42  C    0.097159   0.001193
    43  C    0.097159   0.001193
    44  C   -0.132044  -0.000392
    45  C    0.106618  -0.000581
    46  C    0.106618  -0.000581
    47  C   -0.132044  -0.000392
    48  C   -0.095257   0.000554
    49  H    0.097887  -0.000026
    50  C   -0.123562   0.000490
    51  C   -0.123562   0.000490
    52  H    0.097887  -0.000026
    53  C   -0.095257   0.000554
    54  C   -0.094633  -0.000425
    55  H    0.087177  -0.000022
    56  H    0.085505  -0.000015
    57  C   -0.094634  -0.000425
    58  H    0.085505  -0.000015
    59  H    0.087177  -0.000022
    60  H    0.087330   0.000017
    61  H    0.087330   0.000017
    62  C   -0.080216  -0.002232
    63  C   -0.205505   0.001565
    64  H    0.083992  -0.000067
    65  Cl   0.022961   0.002882
    66  H    0.136380   0.002366
 Sum of Mulliken charges =  -0.00000   1.00000

 Dipole moment (field-independent basis, Debye):
    X=             -2.8558    Y=              0.0001    Z=              0.0000  Tot=              2.8558
 Quadrupole moment (field-independent basis, Debye-Ang):
   XX=           -298.2538   YY=           -313.1394   ZZ=           -319.5244
   XY=              0.0003   XZ=              0.0001   YZ=              5.8541

 Normal termination of Gaussian 16 at Mon Oct  6 17:05:45 2025.
