 Gaussian 16, Revision C.01,
 Gaussian 16:  ES64L-G16RevC.01  3-Jul-2019

 --------------------------------
 #p stable=opt UM062X/TZVP em=gd3
 --------------------------------

 --------
 molecule
 --------
 Symbolic Z-matrix:
 Charge =  0 Multiplicity = 2

                         Standard orientation:
 ---------------------------------------------------------------------
 Center     Atomic      Atomic             Coordinates (Angstroms)
 Number     Number       Type             X           Y           Z
 ---------------------------------------------------------------------
      1          6           0       -2.560382   -0.000050   -0.000040
      2          6           0       -3.281146   -1.084511    0.524456
      3          6           0       -4.671914   -1.083479    0.523672
      4          6           0       -5.390973   -0.000027   -0.000014
      5          6           0       -4.671906    1.083413   -0.523714
      6          6           0       -3.281138    1.084422   -0.524523
      7          6           0       -1.082983   -0.000057   -0.000048
      8          6           0       -0.361588   -0.589841    1.046430
      9          6           0        1.024515   -0.585781    1.039386
     10          6           0        1.788555   -0.000045   -0.000045
     11          6           0        1.024507    0.585676   -1.039481
     12          6           0       -0.361593    0.589727   -1.046530
     13          1           0       -2.747230   -1.946068    0.912298
     14          1           0       -5.214836   -1.932467    0.926452
     15          1           0       -5.214822    1.932410   -0.926484
     16          1           0       -2.747216    1.945972   -0.912374
     17          1           0       -0.880667   -1.013098    1.897041
     18          1           0       -0.880674    1.012988   -1.897137
     19          6           0        3.250407    0.000016   -0.000026
     20          6           0        3.985089   -1.232764    0.298243
     21          6           0        5.054030   -1.274749    1.225311
     22          6           0        3.676649   -2.467090   -0.323072
     23          6           0        5.761746   -2.435113    1.514380
     24          6           0        4.362615   -3.644424   -0.050801
     25          6           0        5.404907   -3.614929    0.869861
     26          1           0        6.560470   -2.419872    2.243877
     27          6           0        3.985085    1.232793   -0.298230
     28          6           0        3.676467    2.467169    0.322890
     29          6           0        5.054217    1.274738   -1.225096
     30          6           0        4.362450    3.644501    0.050653
     31          6           0        5.761959    2.435096   -1.514112
     32          6           0        5.404949    3.614962   -0.869777
     33          1           0        4.100133    4.560022    0.563842
     34          1           0        6.560834    2.419815   -2.243443
     35         17           0        6.281629   -5.086318    1.222932
     36         17           0        5.489391    0.146199    2.152675
     37         17           0        6.281702    5.086343   -1.222796
     38         17           0        2.447992    2.559849    1.568092
     39         17           0        5.489809   -0.146257   -2.152286
     40         17           0        1.812445    1.248324   -2.461140
     41         17           0        1.812439   -1.248365    2.461083
     42          6           0       -7.581984    0.876564    0.857650
     43          6           0       -7.582022   -0.876574   -0.857629
     44          6           0       -6.918760    1.760980    1.766425
     45          6           0       -9.026078    0.876570    0.847875
     46          6           0       -9.026115   -0.876549   -0.847822
     47          6           0       -6.918837   -1.761005   -1.766418
     48          6           0       -7.628116    2.599867    2.584258
     49          1           0       -5.836071    1.754612    1.804272
     50          6           0       -9.726476    1.770145    1.715100
     51          6           0       -9.726552   -1.770108   -1.715031
     52          1           0       -5.836148   -1.754660   -1.804289
     53          6           0       -7.628229   -2.599876   -2.584236
     54          6           0       -9.051360    2.611354    2.556581
     55          1           0       -7.102333    3.260816    3.266411
     56          1           0      -10.812589    1.762559    1.691771
     57          6           0       -9.051473   -2.611331   -2.556528
     58          1           0      -10.812664   -1.762499   -1.691678
     59          1           0       -7.102475   -3.260836   -3.266400
     60          1           0       -9.595644    3.284973    3.211054
     61          1           0       -9.595786   -3.284939   -3.210989
     62          6           0       -6.880216   -0.000012    0.000003
     63          6           0       -9.707346    0.000018    0.000034
     64          1           0      -10.794401    0.000030    0.000046
     65         17           0        2.448472   -2.559660   -1.568579
     66          1           0        4.100448   -4.559909   -0.564138
 ---------------------------------------------------------------------

 SCF Done:  E(UM062X) =  -5179.00952870     A.U. after   24 cycles

 The electronic state is 2-A.
 Alpha  occ. eigenvalues -- -102.69118-102.69117-102.68965-102.68965-102.68927
 Alpha  occ. eigenvalues -- -102.68927-102.68550-102.68550 -10.63889 -10.63889
 Alpha  occ. eigenvalues --  -10.63880 -10.63880 -10.63629 -10.63629 -10.63202
 Alpha  occ. eigenvalues --  -10.63202 -10.60948 -10.60052 -10.60049 -10.59636
 Alpha  occ. eigenvalues --  -10.58621 -10.58144 -10.58144 -10.58141 -10.58141
 Alpha  occ. eigenvalues --  -10.57394 -10.57167 -10.57164 -10.56872 -10.56693
 Alpha  occ. eigenvalues --  -10.56438 -10.56427 -10.56198 -10.56194 -10.56156
 Alpha  occ. eigenvalues --  -10.56154 -10.55897 -10.55893 -10.55324 -10.55212
 Alpha  occ. eigenvalues --  -10.55212 -10.55080 -10.55080 -10.55022 -10.55022
 Alpha  occ. eigenvalues --  -10.54925 -10.54925  -9.83352  -9.83351  -9.83193
 Alpha  occ. eigenvalues --   -9.83193  -9.83154  -9.83154  -9.82781  -9.82781
 Alpha  occ. eigenvalues --   -7.55679  -7.55679  -7.55519  -7.55519  -7.55481
 Alpha  occ. eigenvalues --   -7.55481  -7.55103  -7.55103  -7.55016  -7.55016
 Alpha  occ. eigenvalues --   -7.54985  -7.54985  -7.54851  -7.54851  -7.54820
 Alpha  occ. eigenvalues --   -7.54820  -7.54812  -7.54812  -7.54781  -7.54780
 Alpha  occ. eigenvalues --   -7.54444  -7.54444  -7.54413  -7.54413  -1.05342
 Alpha  occ. eigenvalues --   -1.03797  -1.02948  -1.00384  -0.99668  -0.99147
 Alpha  occ. eigenvalues --   -0.98987  -0.98921  -0.98438  -0.98375  -0.96251
 Alpha  occ. eigenvalues --   -0.94607  -0.93308  -0.92214  -0.91855  -0.91340
 Alpha  occ. eigenvalues --   -0.90320  -0.87522  -0.86331  -0.85591  -0.85560
 Alpha  occ. eigenvalues --   -0.85113  -0.85106  -0.84353  -0.84224  -0.84028
 Alpha  occ. eigenvalues --   -0.80398  -0.77964  -0.74406  -0.73146  -0.72056
 Alpha  occ. eigenvalues --   -0.71405  -0.71114  -0.70838  -0.70641  -0.69519
 Alpha  occ. eigenvalues --   -0.69031  -0.67970  -0.67761  -0.66315  -0.62725
 Alpha  occ. eigenvalues --   -0.62382  -0.62297  -0.60752  -0.60654  -0.60222
 Alpha  occ. eigenvalues --   -0.58836  -0.58381  -0.58285  -0.56244  -0.55162
 Alpha  occ. eigenvalues --   -0.55046  -0.54400  -0.54161  -0.53954  -0.53873
 Alpha  occ. eigenvalues --   -0.52749  -0.52670  -0.52564  -0.52342  -0.52206
 Alpha  occ. eigenvalues --   -0.52181  -0.51508  -0.51166  -0.50961  -0.50380
 Alpha  occ. eigenvalues --   -0.50167  -0.50008  -0.49711  -0.48167  -0.47976
 Alpha  occ. eigenvalues --   -0.47839  -0.47327  -0.46868  -0.46625  -0.46315
 Alpha  occ. eigenvalues --   -0.45622  -0.45607  -0.45511  -0.45074  -0.44815
 Alpha  occ. eigenvalues --   -0.44759  -0.44416  -0.43933  -0.43900  -0.43571
 Alpha  occ. eigenvalues --   -0.43423  -0.41812  -0.41320  -0.40480  -0.40347
 Alpha  occ. eigenvalues --   -0.40043  -0.39954  -0.39877  -0.39730  -0.39483
 Alpha  occ. eigenvalues --   -0.39429  -0.38577  -0.38500  -0.38487  -0.38306
 Alpha  occ. eigenvalues --   -0.37645  -0.37244  -0.36618  -0.35959  -0.33353
 Alpha  occ. eigenvalues --   -0.32831  -0.32115  -0.31938  -0.31763  -0.31682
 Alpha  occ. eigenvalues --   -0.31140  -0.29966  -0.29782  -0.25363  -0.24560
 Alpha virt. eigenvalues --   -0.05069  -0.03741  -0.02799  -0.02220  -0.01173
 Alpha virt. eigenvalues --   -0.00795  -0.00382   0.00686   0.00720   0.02219
 Alpha virt. eigenvalues --    0.02683   0.02876   0.04152   0.04454   0.05970

  Beta  occ. eigenvalues -- -102.69109-102.69109-102.68968-102.68967-102.68930
  Beta  occ. eigenvalues -- -102.68930-102.68552-102.68552 -10.63810 -10.63810
  Beta  occ. eigenvalues --  -10.63801 -10.63801 -10.63576 -10.63576 -10.63120
  Beta  occ. eigenvalues --  -10.63120 -10.60414 -10.60148 -10.60142 -10.59736
  Beta  occ. eigenvalues --  -10.58571 -10.58168 -10.58168 -10.58165 -10.58165
  Beta  occ. eigenvalues --  -10.57404 -10.57193 -10.57190 -10.56866 -10.56694
  Beta  occ. eigenvalues --  -10.56437 -10.56427 -10.56190 -10.56186 -10.56156
  Beta  occ. eigenvalues --  -10.56154 -10.55900 -10.55896 -10.55323 -10.55212
  Beta  occ. eigenvalues --  -10.55212 -10.55080 -10.55080 -10.55022 -10.55022
  Beta  occ. eigenvalues --  -10.54925 -10.54925  -9.83348  -9.83348  -9.83194
  Beta  occ. eigenvalues --   -9.83194  -9.83155  -9.83155  -9.82782  -9.82782
  Beta  occ. eigenvalues --   -7.55686  -7.55686  -7.55532  -7.55532  -7.55494
  Beta  occ. eigenvalues --   -7.55493  -7.55117  -7.55117  -7.54985  -7.54985
  Beta  occ. eigenvalues --   -7.54982  -7.54982  -7.54843  -7.54843  -7.54823
  Beta  occ. eigenvalues --   -7.54823  -7.54805  -7.54805  -7.54784  -7.54784
  Beta  occ. eigenvalues --   -7.54435  -7.54435  -7.54416  -7.54416  -1.04983
  Beta  occ. eigenvalues --   -1.03680  -1.02804  -1.00371  -0.99476  -0.99057
  Beta  occ. eigenvalues --   -0.98910  -0.98827  -0.98358  -0.98342  -0.96251
  Beta  occ. eigenvalues --   -0.94458  -0.92655  -0.92175  -0.91649  -0.91228
  Beta  occ. eigenvalues --   -0.90284  -0.87417  -0.86318  -0.85580  -0.85478
  Beta  occ. eigenvalues --   -0.85085  -0.85073  -0.84295  -0.84222  -0.83997
  Beta  occ. eigenvalues --   -0.80324  -0.77233  -0.74287  -0.73014  -0.71949
  Beta  occ. eigenvalues --   -0.71202  -0.70924  -0.70770  -0.70437  -0.69399
  Beta  occ. eigenvalues --   -0.68861  -0.67967  -0.67462  -0.66257  -0.62693
  Beta  occ. eigenvalues --   -0.62156  -0.62147  -0.60743  -0.60521  -0.59567
  Beta  occ. eigenvalues --   -0.58757  -0.58215  -0.58154  -0.56005  -0.55013
  Beta  occ. eigenvalues --   -0.54987  -0.54386  -0.54081  -0.53953  -0.53789
  Beta  occ. eigenvalues --   -0.52619  -0.52474  -0.52337  -0.52316  -0.52135
  Beta  occ. eigenvalues --   -0.52107  -0.51436  -0.51025  -0.50680  -0.50319
  Beta  occ. eigenvalues --   -0.50138  -0.49877  -0.49456  -0.48060  -0.47970
  Beta  occ. eigenvalues --   -0.47832  -0.47161  -0.46600  -0.46276  -0.46193
  Beta  occ. eigenvalues --   -0.45507  -0.45446  -0.45289  -0.44824  -0.44751
  Beta  occ. eigenvalues --   -0.44631  -0.44270  -0.43895  -0.43734  -0.43403
  Beta  occ. eigenvalues --   -0.43345  -0.41756  -0.41311  -0.40360  -0.40202
  Beta  occ. eigenvalues --   -0.39981  -0.39947  -0.39831  -0.39645  -0.39474
  Beta  occ. eigenvalues --   -0.39241  -0.38569  -0.38516  -0.38499  -0.38143
  Beta  occ. eigenvalues --   -0.37506  -0.37241  -0.36603  -0.34300  -0.32802
  Beta  occ. eigenvalues --   -0.32395  -0.31925  -0.31741  -0.31740  -0.31473
  Beta  occ. eigenvalues --   -0.30982  -0.29780  -0.29608  -0.24651
  Beta virt. eigenvalues --   -0.09867  -0.05031  -0.03325  -0.02246  -0.01939
  Beta virt. eigenvalues --   -0.00884  -0.00631  -0.00250   0.00747   0.01397
  Beta virt. eigenvalues --    0.02424   0.02883   0.02948   0.04662   0.05357

 Mulliken charges and spin densities:
               1          2
     1  C   -0.071751  -0.014862
     2  C   -0.116502   0.014485
     3  C   -0.096131  -0.007644
     4  C   -0.342316   0.013472
     5  C   -0.096134  -0.007644
     6  C   -0.116504   0.014485
     7  C   -0.057682   0.091025
     8  C   -0.048446  -0.056521
     9  C   -0.185857   0.107972
    10  C    0.145195  -0.151566
    11  C   -0.185879   0.107975
    12  C   -0.048437  -0.056521
    13  H    0.192012  -0.000202
    14  H    0.188521   0.000161
    15  H    0.188521   0.000161
    16  H    0.192012  -0.000202
    17  H    0.208850   0.000885
    18  H    0.208850   0.000885
    19  C   -0.156821   0.850242
    20  C    0.121350  -0.135152
    21  C   -0.176670   0.102404
    22  C   -0.154024   0.103530
    23  C    0.044988  -0.054206
    24  C    0.042320  -0.054343
    25  C   -0.185578   0.087977
    26  H    0.198597   0.000859
    27  C    0.121543  -0.135203
    28  C   -0.154048   0.103575
    29  C   -0.176735   0.102440
    30  C    0.042309  -0.054367
    31  C    0.044986  -0.054228
    32  C   -0.185586   0.088017
    33  H    0.198347   0.000849
    34  H    0.198599   0.000859
    35  Cl  -0.035546   0.004819
    36  Cl  -0.002306  -0.003470
    37  Cl  -0.035543   0.004822
    38  Cl  -0.001493  -0.003655
    39  Cl  -0.002304  -0.003469
    40  Cl  -0.010569  -0.003313
    41  Cl  -0.010569  -0.003314
    42  C   -0.060832  -0.000308
    43  C   -0.060831  -0.000308
    44  C   -0.105745   0.000226
    45  C   -0.114209  -0.000395
    46  C   -0.114209  -0.000395
    47  C   -0.105746   0.000226
    48  C   -0.120376   0.000257
    49  H    0.197975  -0.000150
    50  C   -0.123183   0.000225
    51  C   -0.123183   0.000225
    52  H    0.197975  -0.000150
    53  C   -0.120376   0.000257
    54  C   -0.132813  -0.000213
    55  H    0.147163  -0.000005
    56  H    0.147310   0.000000
    57  C   -0.132814  -0.000213
    58  H    0.147310   0.000000
    59  H    0.147163  -0.000005
    60  H    0.147383   0.000005
    61  H    0.147383   0.000005
    62  C    0.065480   0.000845
    63  C   -0.067334   0.000684
    64  H    0.156087  -0.000024
    65  Cl  -0.001494  -0.003656
    66  H    0.198346   0.000849
 Sum of Mulliken charges =  -0.00000   1.00000

 Dipole moment (field-independent basis, Debye):
    X=             -2.6927    Y=              0.0001    Z=              0.0000  Tot=              2.6927
 Quadrupole moment (field-independent basis, Debye-Ang):
   XX=           -300.9771   YY=           -317.5033   ZZ=           -324.3297
   XY=              0.0002   XZ=              0.0000   YZ=              7.0455

 Normal termination of Gaussian 16 at Fri Jun 13 18:19:59 2025.
